<?xml version="1.0"?>
<VTKFile type="UnstructuredGrid"  version="0.1"  >
<UnstructuredGrid>
<Piece  NumberOfPoints="36" NumberOfCells="50">
<Points>
<DataArray  type="Float64"  NumberOfComponents="3"  format="ascii">0 0 0  0.2 0 0  0.4 0 0  0.6 0 0  0.8 0 0  1 0 0  0 0.2 0  0.2 0.2 0  0.4 0.2 0  0.6 0.2 0  0.8 0.2 0  1 0.2 0  0 0.4 0  0.2 0.4 0  0.4 0.4 0  0.6 0.4 0  0.8 0.4 0  1 0.4 0  0 0.6 0  0.2 0.6 0  0.4 0.6 0  0.6 0.6 0  0.8 0.6 0  1 0.6 0  0 0.8 0  0.2 0.8 0  0.4 0.8 0  0.6 0.8 0  0.8 0.8 0  1 0.8 0  0 1 0  0.2 1 0  0.4 1 0  0.6 1 0  0.8 1 0  1 1 0  </DataArray>
</Points>
<Cells>
<DataArray  type="UInt32"  Name="connectivity"  format="ascii">0 1 7  0 6 7  1 2 8  1 7 8  2 3 9  2 8 9  3 4 10  3 9 10  4 5 11  4 10 11  6 7 13  6 12 13  7 8 14  7 13 14  8 9 15  8 14 15  9 10 16  9 15 16  10 11 17  10 16 17  12 13 19  12 18 19  13 14 20  13 19 20  14 15 21  14 20 21  15 16 22  15 21 22  16 17 23  16 22 23  18 19 25  18 24 25  19 20 26  19 25 26  20 21 27  20 26 27  21 22 28  21 27 28  22 23 29  22 28 29  24 25 31  24 30 31  25 26 32  25 31 32  26 27 33  26 32 33  27 28 34  27 33 34  28 29 35  28 34 35  </DataArray>
<DataArray  type="UInt32"  Name="offsets"  format="ascii">3 6 9 12 15 18 21 24 27 30 33 36 39 42 45 48 51 54 57 60 63 66 69 72 75 78 81 84 87 90 93 96 99 102 105 108 111 114 117 120 123 126 129 132 135 138 141 144 147 150 </DataArray>
<DataArray  type="UInt8"  Name="types"  format="ascii">5 5 5 5 5 5 5 5 5 5 5 5 5 5 5 5 5 5 5 5 5 5 5 5 5 5 5 5 5 5 5 5 5 5 5 5 5 5 5 5 5 5 5 5 5 5 5 5 5 5 </DataArray>
</Cells>
<PointData  Vectors="f_129"> 
<DataArray  type="Float64"  Name="f_129"  NumberOfComponents="3" format="ascii">-2.1507981712452920e-01 -2.9315138895229953e-01 0.0000000000000000e+00  6.7978120983382184e-02 -1.6964407753538788e+00 0.0000000000000000e+00  -8.8205515157064041e-02 -3.6695466791850984e+00 0.0000000000000000e+00  1.2267406014235194e+00 -8.2311564883834816e+00 0.0000000000000000e+00  -3.0409086736342128e+00 -1.9497869743443072e+01 0.0000000000000000e+00  8.0945630502376531e+00 -3.4933970339193657e+01 0.0000000000000000e+00  -1.3257393358458249e+00 -6.5045040583734358e-03 0.0000000000000000e+00  -1.2136870310469952e+00 -8.3495185511654957e-01 0.0000000000000000e+00  -2.0583016354593280e+00 -2.1322555726319110e+00 0.0000000000000000e+00  -4.0062593620911153e+00 -4.0543966670350366e+00 0.0000000000000000e+00  -9.6624356508141158e+00 -4.7441832322580337e+00 0.0000000000000000e+00  -1.3148217426841093e+01 -1.0634189578169668e+01 0.0000000000000000e+00  -1.7873503273089377e+00 2.6555568611068017e-02 0.0000000000000000e+00  -1.9518192831381969e+00 -3.3799429829529332e-01 0.0000000000000000e+00  -3.1440067722244556e+00 -7.5121505728168791e-01 0.0000000000000000e+00  -5.0235853852835568e+00 -8.2112765144842503e-01 0.0000000000000000e+00  -8.0839289694355188e+00 -1.5298958284283097e+00 0.0000000000000000e+00  -1.2889478931203572e+01 1.7686683050683218e+00 0.0000000000000000e+00  -1.5976186044971543e+00 -6.9699820831519085e-02 0.0000000000000000e+00  -2.0199053102180606e+00 2.9642975490703527e-01 0.0000000000000000e+00  -3.0408197669508175e+00 6.4613673119510806e-01 0.0000000000000000e+00  -4.7795644465925795e+00 6.0111935362354496e-01 0.0000000000000000e+00  -9.1500628661320569e+00 -8.4295395591969635e-01 0.0000000000000000e+00  -9.6282403514988619e+00 -1.4448136460190975e+00 0.0000000000000000e+00  -8.4037249312779139e-01 2.2196791740998498e-01 0.0000000000000000e+00  -1.3430744357690931e+00 1.1141655403345738e+00 0.0000000000000000e+00  -2.0235220846638344e+00 2.5240759313620456e+00 0.0000000000000000e+00  -4.1998998650943484e+00 5.1544002921500853e+00 0.0000000000000000e+00  -8.6960568465774983e+00 1.0621679883199725e+01 0.0000000000000000e+00  -1.6464004379577226e+01 1.1645913139742269e+01 0.0000000000000000e+00  4.8188388078753214e-01 -4.9965053865899417e-01 0.0000000000000000e+00  -1.2339526844727265e-01 7.7733315990800322e-01 0.0000000000000000e+00  7.9927042235320211e-02 2.2542937546309632e+00 0.0000000000000000e+00  -6.2367883492738536e-02 4.9355728840645403e+00 0.0000000000000000e+00  1.3774877946011137e+00 8.4571346757757766e+00 0.0000000000000000e+00  -5.5167060668308707e+00 2.6027034468157026e+01 0.0000000000000000e+00  </DataArray> 
</PointData> 
</Piece>
</UnstructuredGrid>
</VTKFile>